<VTKFile type="UnstructuredGrid"  version="0.1"   > 
<UnstructuredGrid> 
<Piece  NumberOfPoints="  138" NumberOfCells=" 90"> 
<Points> 
<DataArray  type="Float64"  NumberOfComponents="3"  format="ascii" > 
0.000000 0.000000 0.0 
100.000000 0.000000 0.0 
100.000000 10.000000 0.0 
0.000000 10.000000 0.0 
125.000000 0.000000 0.0 
125.000000 10.000000 0.0 
225.000000 0.000000 0.0 
225.000000 10.000000 0.0 
7.794061 0.000000 0.0 
15.198419 0.000000 0.0 
22.232560 0.000000 0.0 
28.914993 0.000000 0.0 
35.263305 0.000000 0.0 
41.294201 0.000000 0.0 
47.023552 0.000000 0.0 
52.466435 0.000000 0.0 
57.637175 0.000000 0.0 
62.549377 0.000000 0.0 
67.215970 0.000000 0.0 
71.649232 0.000000 0.0 
75.860832 0.000000 0.0 
79.861852 0.000000 0.0 
83.662820 0.000000 0.0 
87.273741 0.000000 0.0 
90.704115 0.000000 0.0 
93.962970 0.000000 0.0 
97.058883 0.000000 0.0 
7.794061 10.000000 0.0 
15.198419 10.000000 0.0 
22.232560 10.000000 0.0 
28.914993 10.000000 0.0 
35.263305 10.000000 0.0 
41.294201 10.000000 0.0 
47.023552 10.000000 0.0 
52.466435 10.000000 0.0 
57.637175 10.000000 0.0 
62.549377 10.000000 0.0 
67.215970 10.000000 0.0 
71.649232 10.000000 0.0 
75.860832 10.000000 0.0 
79.861852 10.000000 0.0 
83.662820 10.000000 0.0 
87.273741 10.000000 0.0 
90.704115 10.000000 0.0 
93.962970 10.000000 0.0 
97.058883 10.000000 0.0 
0.000000 5.000000 0.0 
100.000000 5.000000 0.0 
103.935492 0.000000 0.0 
109.415753 0.000000 0.0 
115.584247 0.000000 0.0 
121.064508 0.000000 0.0 
103.935492 10.000000 0.0 
109.415753 10.000000 0.0 
115.584247 10.000000 0.0 
121.064508 10.000000 0.0 
125.000000 5.000000 0.0 
128.024259 0.000000 0.0 
131.199730 0.000000 0.0 
134.533976 0.000000 0.0 
138.034933 0.000000 0.0 
141.710939 0.000000 0.0 
145.570744 0.000000 0.0 
149.623540 0.000000 0.0 
153.878976 0.000000 0.0 
158.347183 0.000000 0.0 
163.038801 0.000000 0.0 
167.965000 0.000000 0.0 
173.137509 0.000000 0.0 
178.568643 0.000000 0.0 
184.271334 0.000000 0.0 
190.259159 0.000000 0.0 
196.546376 0.000000 0.0 
203.147953 0.000000 0.0 
210.079610 0.000000 0.0 
217.357849 0.000000 0.0 
128.024259 10.000000 0.0 
131.199730 10.000000 0.0 
134.533976 10.000000 0.0 
138.034933 10.000000 0.0 
141.710939 10.000000 0.0 
145.570744 10.000000 0.0 
149.623540 10.000000 0.0 
153.878976 10.000000 0.0 
158.347183 10.000000 0.0 
163.038801 10.000000 0.0 
167.965000 10.000000 0.0 
173.137509 10.000000 0.0 
178.568643 10.000000 0.0 
184.271334 10.000000 0.0 
190.259159 10.000000 0.0 
196.546376 10.000000 0.0 
203.147953 10.000000 0.0 
210.079610 10.000000 0.0 
217.357849 10.000000 0.0 
225.000000 5.000000 0.0 
7.794061 5.000000 0.0 
15.198419 5.000000 0.0 
22.232560 5.000000 0.0 
28.914993 5.000000 0.0 
35.263305 5.000000 0.0 
41.294201 5.000000 0.0 
47.023552 5.000000 0.0 
52.466435 5.000000 0.0 
57.637175 5.000000 0.0 
62.549377 5.000000 0.0 
67.215970 5.000000 0.0 
71.649232 5.000000 0.0 
75.860832 5.000000 0.0 
79.861852 5.000000 0.0 
83.662820 5.000000 0.0 
87.273741 5.000000 0.0 
90.704115 5.000000 0.0 
93.962970 5.000000 0.0 
97.058883 5.000000 0.0 
103.935492 5.000000 0.0 
109.415753 5.000000 0.0 
115.584247 5.000000 0.0 
121.064508 5.000000 0.0 
128.024259 5.000000 0.0 
131.199730 5.000000 0.0 
134.533976 5.000000 0.0 
138.034933 5.000000 0.0 
141.710939 5.000000 0.0 
145.570744 5.000000 0.0 
149.623540 5.000000 0.0 
153.878976 5.000000 0.0 
158.347183 5.000000 0.0 
163.038801 5.000000 0.0 
167.965000 5.000000 0.0 
173.137509 5.000000 0.0 
178.568643 5.000000 0.0 
184.271334 5.000000 0.0 
190.259159 5.000000 0.0 
196.546376 5.000000 0.0 
203.147953 5.000000 0.0 
210.079610 5.000000 0.0 
217.357849 5.000000 0.0 
</DataArray> 
</Points> 
<Cells> 
<DataArray  type="Int32"  Name="connectivity"  format="ascii"> 
0 8 96 46 
46 96 27 3 
8 9 97 96 
96 97 28 27 
9 10 98 97 
97 98 29 28 
10 11 99 98 
98 99 30 29 
11 12 100 99 
99 100 31 30 
12 13 101 100 
100 101 32 31 
13 14 102 101 
101 102 33 32 
14 15 103 102 
102 103 34 33 
15 16 104 103 
103 104 35 34 
16 17 105 104 
104 105 36 35 
17 18 106 105 
105 106 37 36 
18 19 107 106 
106 107 38 37 
19 20 108 107 
107 108 39 38 
20 21 109 108 
108 109 40 39 
21 22 110 109 
109 110 41 40 
22 23 111 110 
110 111 42 41 
23 24 112 111 
111 112 43 42 
24 25 113 112 
112 113 44 43 
25 26 114 113 
113 114 45 44 
26 1 47 114 
114 47 2 45 
1 48 115 47 
47 115 52 2 
48 49 116 115 
115 116 53 52 
49 50 117 116 
116 117 54 53 
50 51 118 117 
117 118 55 54 
51 4 56 118 
118 56 5 55 
4 57 119 56 
56 119 76 5 
57 58 120 119 
119 120 77 76 
58 59 121 120 
120 121 78 77 
59 60 122 121 
121 122 79 78 
60 61 123 122 
122 123 80 79 
61 62 124 123 
123 124 81 80 
62 63 125 124 
124 125 82 81 
63 64 126 125 
125 126 83 82 
64 65 127 126 
126 127 84 83 
65 66 128 127 
127 128 85 84 
66 67 129 128 
128 129 86 85 
67 68 130 129 
129 130 87 86 
68 69 131 130 
130 131 88 87 
69 70 132 131 
131 132 89 88 
70 71 133 132 
132 133 90 89 
71 72 134 133 
133 134 91 90 
72 73 135 134 
134 135 92 91 
73 74 136 135 
135 136 93 92 
74 75 137 136 
136 137 94 93 
75 6 95 137 
137 95 7 94 
</DataArray> 
<DataArray  type="Int32"  Name="offsets"  format="ascii"> 
4 8 12 16 20 24 28 32 36 40 44 48 52 56 60 64 68 72 76 80 84 88 92 96 100 104 108 112 116 120 124 128 132 136 140 144 148 152 156 160 164 168 172 176 180 184 188 192 196 200 204 208 212 216 220 224 228 232 236 240 244 248 252 256 260 264 268 272 276 280 284 288 292 296 300 304 308 312 316 320 324 328 332 336 340 344 348 352 356 360 </DataArray> 
<DataArray  type="UInt8"  Name="types"  format="ascii"> 
9 9 9 9 9 9 9 9 9 9 9 9 9 9 9 9 9 9 9 9 9 9 9 9 9 9 9 9 9 9 9 9 9 9 9 9 9 9 9 9 9 9 9 9 9 9 9 9 9 9 9 9 9 9 9 9 9 9 9 9 9 9 9 9 9 9 9 9 9 9 9 9 9 9 9 9 9 9 9 9 9 9 9 9 9 9 9 9 9 9 </DataArray> 
</Cells> 
<PointData  Scalars="Data"> 
<DataArray  type="Float64"  Name="Data" NumberOfComponents="2" format="ascii"> 
 -0.18695039   1051.64462869   
 -0.19567870   1004.88662899   
 -0.19567870   1004.88662899   
 -0.18695039   1051.64462869   
 -0.19658695   997.43558507   
 -0.19658695   997.43558507   
 -0.20627100   944.12544115   
 -0.20627100   944.12544115   
 -0.18699094   1051.61484685   
 -0.18710526   1051.51736548   
 -0.18728406   1051.32471490   
 -0.18751988   1050.99705199   
 -0.18780659   1050.48953905   
 -0.18813902   1049.75736205   
 -0.18851275   1048.75911012   
 -0.18892387   1047.45897751   
 -0.18936884   1045.82809126   
 -0.18984443   1043.84517550   
 -0.19034759   1041.49670946   
 -0.19087546   1038.77670390   
 -0.19142528   1035.68619981   
 -0.19199441   1032.23257654   
 -0.19258030   1028.42874295   
 -0.19318051   1024.29227141   
 -0.19379267   1019.84452273   
 -0.19441452   1015.10979803   
 -0.19504389   1010.11454410   
 -0.18699094   1051.61484685   
 -0.18710526   1051.51736548   
 -0.18728406   1051.32471490   
 -0.18751988   1050.99705199   
 -0.18780659   1050.48953905   
 -0.18813902   1049.75736205   
 -0.18851275   1048.75911012   
 -0.18892387   1047.45897751   
 -0.18936884   1045.82809126   
 -0.18984443   1043.84517550   
 -0.19034759   1041.49670946   
 -0.19087546   1038.77670390   
 -0.19142528   1035.68619981   
 -0.19199441   1032.23257654   
 -0.19258030   1028.42874295   
 -0.19318051   1024.29227141   
 -0.19379267   1019.84452273   
 -0.19441452   1015.10979803   
 -0.19504389   1010.11454410   
 -0.18695039   1051.64462869   
 -0.19567870   1004.88662899   
 -0.19582218   1003.69083492   
 -0.19602145   1002.04718072   
 -0.19624530   1000.21694809   
 -0.19644408   998.59858398   
 -0.19582218   1003.69083492   
 -0.19602145   1002.04718072   
 -0.19624530   1000.21694809   
 -0.19644408   998.59858398   
 -0.19658695   997.43558507   
 -0.19724068   992.20345361   
 -0.19789577   987.15427780   
 -0.19855002   982.31361698   
 -0.19920102   977.70619387   
 -0.19984618   973.35531846   
 -0.20048269   969.28225896   
 -0.20110754   965.50557641   
 -0.20171751   962.04044778   
 -0.20230917   958.89801149   
 -0.20287882   956.08477878   
 -0.20342251   953.60216527   
 -0.20393597   951.44620834   
 -0.20441459   949.60754828   
 -0.20485328   948.07176468   
 -0.20524641   946.82017791   
 -0.20558766   945.83125171   
 -0.20586983   945.08277529   
 -0.20608459   944.55507198   
 -0.20622218   944.23559418   
 -0.19724068   992.20345361   
 -0.19789577   987.15427780   
 -0.19855002   982.31361698   
 -0.19920102   977.70619387   
 -0.19984618   973.35531846   
 -0.20048269   969.28225896   
 -0.20110754   965.50557641   
 -0.20171751   962.04044778   
 -0.20230917   958.89801149   
 -0.20287882   956.08477878   
 -0.20342251   953.60216527   
 -0.20393597   951.44620834   
 -0.20441459   949.60754828   
 -0.20485328   948.07176468   
 -0.20524641   946.82017791   
 -0.20558766   945.83125171   
 -0.20586983   945.08277529   
 -0.20608459   944.55507198   
 -0.20622218   944.23559418   
 -0.20627100   944.12544115   
 -0.18699094   1051.61484685   
 -0.18710526   1051.51736548   
 -0.18728406   1051.32471490   
 -0.18751988   1050.99705199   
 -0.18780659   1050.48953905   
 -0.18813902   1049.75736205   
 -0.18851275   1048.75911012   
 -0.18892387   1047.45897751   
 -0.18936884   1045.82809126   
 -0.18984443   1043.84517550   
 -0.19034759   1041.49670946   
 -0.19087546   1038.77670390   
 -0.19142528   1035.68619981   
 -0.19199441   1032.23257654   
 -0.19258030   1028.42874295   
 -0.19318051   1024.29227141   
 -0.19379267   1019.84452273   
 -0.19441452   1015.10979803   
 -0.19504389   1010.11454410   
 -0.19582218   1003.69083492   
 -0.19602145   1002.04718072   
 -0.19624530   1000.21694809   
 -0.19644408   998.59858398   
 -0.19724068   992.20345361   
 -0.19789577   987.15427780   
 -0.19855002   982.31361698   
 -0.19920102   977.70619387   
 -0.19984618   973.35531846   
 -0.20048269   969.28225896   
 -0.20110754   965.50557641   
 -0.20171751   962.04044778   
 -0.20230917   958.89801149   
 -0.20287882   956.08477878   
 -0.20342251   953.60216527   
 -0.20393597   951.44620834   
 -0.20441459   949.60754828   
 -0.20485328   948.07176468   
 -0.20524641   946.82017791   
 -0.20558766   945.83125171   
 -0.20586983   945.08277529   
 -0.20608459   944.55507198   
 -0.20622218   944.23559418   
</DataArray> 
</PointData> 
</Piece> 
</UnstructuredGrid> 
</VTKFile> 
